REMARK  Name = /home/alacournola/DEKOIS_2.0x/11betahsd1/11betahsd1_p_protoss_pocket.pdb
REMARK                            x       y       z     vdW  Elec       q    Type
REMARK                         _______ _______ _______ _____ _____    ______ ____
ATOM      1  C   LYS B  44      24.187  28.418  84.382  0.00  0.00    +0.232 C 
ATOM      2  O   LYS B  44      24.209  29.576  83.969  0.00  0.00    -0.274 OA
ATOM      3  N   GLY B  45      24.226  28.080  85.664  0.00  0.00    -0.305 N 
ATOM      4  H   GLY B  45      24.127  27.113  85.898  0.00  0.00    +0.149 HD
ATOM      5  CA  LYS B  44      24.085  27.258  83.402  0.00  0.00    +0.155 C 
ATOM      6  N   LYS B  44      24.004  27.685  82.005  0.00  0.00    -0.244 NA
ATOM      7  H   LYS B  44      24.427  28.550  81.736  0.00  0.00    +0.141 HD
ATOM      8  CB  LYS B  44      25.214  26.237  83.618  0.00  0.00    +0.029 C 
ATOM      9  CG  LYS B  44      26.575  26.657  83.112  0.00  0.00    +0.000 C 
ATOM     10  CD  LYS B  44      27.347  25.486  82.519  0.00  0.00    -0.019 C 
ATOM     11  CE  LYS B  44      28.531  25.096  83.360  0.00  0.00    -0.086 C 
ATOM     12  NZ  LYS B  44      29.423  24.146  82.641  0.00  0.00    +0.378 N 
ATOM     13  HZ1 LYS B  44      30.198  23.908  83.227  0.00  0.00    -0.090 HD
ATOM     14  HZ2 LYS B  44      28.912  23.318  82.411  0.00  0.00    -0.090 HD
ATOM     15  HZ3 LYS B  44      29.759  24.574  81.802  0.00  0.00    -0.090 HD
ATOM     16  CA  GLY B  45      24.406  29.039  86.758  0.00  0.00    +0.200 C 
ATOM     17  C   GLY B  45      23.451  30.202  86.763  0.00  0.00    +0.231 C 
ATOM     18  O   GLY B  45      22.248  30.031  86.536  0.00  0.00    -0.274 OA
ATOM     19  N   ILE B  46      23.985  31.402  87.033  0.00  0.00    -0.304 N 
ATOM     20  H   ILE B  46      24.974  31.463  87.168  0.00  0.00    +0.149 HD
ATOM     21  CA  ILE B  46      23.186  32.635  87.141  0.00  0.00    +0.150 C 
ATOM     22  C   ILE B  46      22.493  33.011  85.810  0.00  0.00    +0.220 C 
ATOM     23  O   ILE B  46      21.327  33.406  85.828  0.00  0.00    -0.287 OA
ATOM     24  CB  ILE B  46      24.066  33.784  87.718  0.00  0.00    +0.014 C 
ATOM     25  CG2 ILE B  46      23.282  35.107  87.778  0.00  0.00    +0.010 C 
ATOM     26  CG1 ILE B  46      24.597  33.401  89.126  0.00  0.00    +0.002 C 
ATOM     27  CD1 ILE B  46      25.949  34.024  89.449  0.00  0.00    +0.004 C 
TER
REMARK  Name = /home/alacournola/DEKOIS_2.0x/11betahsd1/11betahsd1_p_protoss_pocket.pdb
REMARK                            x       y       z     vdW  Elec       q    Type
REMARK                         _______ _______ _______ _____ _____    ______ ____
ATOM      1  CB  ASN B 119      25.798  36.804  82.334  0.00  0.00    +0.123 C 
ATOM      2  CG  ASN B 119      25.803  35.707  83.354  0.00  0.00    +0.212 C 
ATOM      3  OD1 ASN B 119      25.863  35.957  84.571  0.00  0.00    -0.276 OA
ATOM      4  ND2 ASN B 119      25.756  34.471  82.864  0.00  0.00    -0.329 N 
ATOM      5 HD21 ASN B 119      25.708  34.326  81.876  0.00  0.00    +0.145 HD
ATOM      6 HD22 ASN B 119      25.768  33.687  83.484  0.00  0.00    +0.145 HD
ATOM      7  CA  ASN B 119      27.172  37.434  82.022  0.00  0.00    +0.152 C 
ATOM      8  N   ASN B 119      26.967  38.301  80.857  0.00  0.00    -0.245 NA
ATOM      9  H   ASN B 119      26.856  37.870  79.961  0.00  0.00    +0.141 HD
ATOM     10  C   ASN B 119      28.264  36.361  81.898  0.00  0.00    +0.218 C 
ATOM     11  O   ASN B 119      28.835  35.938  82.922  0.00  0.00    -0.287 OA
TER
REMARK  Name = /home/alacournola/DEKOIS_2.0x/11betahsd1/11betahsd1_p_protoss_pocket.pdb
REMARK                            x       y       z     vdW  Elec       q    Type
REMARK                         _______ _______ _______ _____ _____    ______ ____
ATOM      1  CA  THR B 124      38.743  29.642  85.628  0.00  0.00    +0.187 C 
ATOM      2  C   THR B 124      38.750  28.772  86.878  0.00  0.00    +0.237 C 
ATOM      3  O   THR B 124      37.864  27.937  87.063  0.00  0.00    -0.274 OA
ATOM      4  N   SER B 125      39.746  28.948  87.704  0.00  0.00    -0.300 N 
ATOM      5  H   SER B 125      40.429  29.644  87.482  0.00  0.00    +0.150 HD
ATOM      6  CA  SER B 125      39.914  28.181  88.935  0.00  0.00    +0.184 C 
ATOM      7  C   SER B 125      40.721  29.045  89.898  0.00  0.00    +0.236 C 
ATOM      8  O   SER B 125      41.294  30.072  89.492  0.00  0.00    -0.274 OA
ATOM      9  N   LEU B 126      40.732  28.668  91.175  0.00  0.00    -0.302 N 
ATOM     10  H   LEU B 126      40.211  27.860  91.450  0.00  0.00    +0.150 HD
ATOM     11  CA  LEU B 126      41.486  29.407  92.183  0.00  0.00    +0.159 C 
ATOM     12  C   LEU B 126      42.900  28.869  92.210  0.00  0.00    +0.234 C 
ATOM     13  O   LEU B 126      43.113  27.678  92.443  0.00  0.00    -0.274 OA
ATOM     14  N   ASN B 127      43.868  29.729  91.931  0.00  0.00    -0.303 N 
ATOM     15  H   ASN B 127      43.627  30.679  91.730  0.00  0.00    +0.149 HD
ATOM     16  CA  ASN B 127      45.281  29.337  91.906  0.00  0.00    +0.156 C 
ATOM     17  C   ASN B 127      46.129  30.553  92.121  0.00  0.00    +0.220 C 
ATOM     18  O   ASN B 127      45.753  31.626  91.652  0.00  0.00    -0.287 OA
ATOM     19  CB  ASN B 127      45.654  28.712  90.549  0.00  0.00    +0.126 C 
ATOM     20  CG  ASN B 127      45.457  27.207  90.493  0.00  0.00    +0.213 C 
ATOM     21  OD1 ASN B 127      44.617  26.693  89.745  0.00  0.00    -0.276 OA
ATOM     22  ND2 ASN B 127      46.193  26.472  91.321  0.00  0.00    -0.329 N 
ATOM     23 HD21 ASN B 127      46.866  26.912  91.916  0.00  0.00    +0.145 HD
ATOM     24 HD22 ASN B 127      46.074  25.480  91.349  0.00  0.00    +0.145 HD
ATOM     25  CB  LEU B 126      40.825  29.279  93.565  0.00  0.00    +0.034 C 
ATOM     26  CG  LEU B 126      39.636  30.196  93.833  0.00  0.00    -0.015 C 
ATOM     27  CD1 LEU B 126      38.400  29.774  93.050  0.00  0.00    +0.007 C 
ATOM     28  CD2 LEU B 126      39.291  30.154  95.281  0.00  0.00    +0.007 C 
ATOM     29  CB  SER B 125      40.646  26.873  88.641  0.00  0.00    +0.187 C 
ATOM     30  OG  SER B 125      41.966  27.159  88.219  0.00  0.00    -0.393 OA
ATOM     31  HG  SER B 125      42.617  26.733  88.848  0.00  0.00    +0.209 HD
ATOM     32  C   ASN B 123      37.716  29.233  83.482  0.00  0.00    +0.234 C 
ATOM     33  O   ASN B 123      38.759  29.512  82.910  0.00  0.00    -0.274 OA
ATOM     34  N   THR B 124      37.590  29.290  84.799  0.00  0.00    -0.300 N 
ATOM     35  H   THR B 124      36.708  29.093  85.226  0.00  0.00    +0.150 HD
ATOM     36  CA  ASN B 123      36.473  28.857  82.684  0.00  0.00    +0.168 C 
ATOM     37  C   THR B 122      36.139  31.114  81.814  0.00  0.00    +0.236 C 
ATOM     38  O   THR B 122      36.147  31.593  82.952  0.00  0.00    -0.274 OA
ATOM     39  N   ASN B 123      36.279  29.793  81.576  0.00  0.00    -0.302 N 
ATOM     40  H   ASN B 123      36.250  29.452  80.637  0.00  0.00    +0.150 HD
ATOM     41  CA  THR B 122      35.971  32.022  80.605  0.00  0.00    +0.187 C 
ATOM     42  C   ILE B 121      33.847  33.081  81.146  0.00  0.00    +0.232 C 
ATOM     43  O   ILE B 121      33.218  32.032  80.941  0.00  0.00    -0.274 OA
ATOM     44  N   THR B 122      35.166  33.173  81.002  0.00  0.00    -0.301 N 
ATOM     45  H   THR B 122      35.616  34.050  81.169  0.00  0.00    +0.150 HD
ATOM     46  CA  ILE B 121      33.130  34.314  81.692  0.00  0.00    +0.158 C 
ATOM     47  N   ILE B 121      31.714  34.189  81.316  0.00  0.00    -0.244 NA
ATOM     48  H   ILE B 121      31.301  33.279  81.335  0.00  0.00    +0.141 HD
ATOM     49  CB  ILE B 121      33.379  34.447  83.235  0.00  0.00    +0.013 C 
ATOM     50  CG2 ILE B 121      32.944  35.835  83.764  0.00  0.00    +0.009 C 
ATOM     51  CG1 ILE B 121      32.729  33.278  84.040  0.00  0.00    +0.002 C 
ATOM     52  CD1 ILE B 121      33.145  33.196  85.541  0.00  0.00    +0.004 C 
ATOM     53  CB  THR B 122      37.319  32.496  79.975  0.00  0.00    +0.141 C 
ATOM     54  CG2 THR B 122      38.351  32.988  81.002  0.00  0.00    +0.040 C 
ATOM     55  OG1 THR B 122      37.861  31.416  79.218  0.00  0.00    -0.390 OA
ATOM     56  HG1 THR B 122      38.727  31.700  78.805  0.00  0.00    +0.210 HD
ATOM     57  CB  ASN B 123      36.606  27.422  82.139  0.00  0.00    +0.127 C 
ATOM     58  CG  ASN B 123      35.315  26.810  81.635  0.00  0.00    +0.213 C 
ATOM     59  OD1 ASN B 123      34.239  27.407  81.671  0.00  0.00    -0.276 OA
ATOM     60  ND2 ASN B 123      35.405  25.589  81.124  0.00  0.00    -0.329 N 
ATOM     61 HD21 ASN B 123      36.288  25.119  81.103  0.00  0.00    +0.145 HD
ATOM     62 HD22 ASN B 123      34.590  25.138  80.760  0.00  0.00    +0.145 HD
ATOM     63  CB  THR B 124      38.737  31.176  85.909  0.00  0.00    +0.141 C 
ATOM     64  CG2 THR B 124      37.557  31.610  86.761  0.00  0.00    +0.040 C 
ATOM     65  OG1 THR B 124      39.969  31.549  86.538  0.00  0.00    -0.390 OA
ATOM     66  HG1 THR B 124      40.640  31.792  85.838  0.00  0.00    +0.210 HD
TER
REMARK  Name = /home/alacournola/DEKOIS_2.0x/11betahsd1/11betahsd1_p_protoss_pocket.pdb
REMARK                            x       y       z     vdW  Elec       q    Type
REMARK                         _______ _______ _______ _____ _____    ______ ____
ATOM      1  CB  HIS B 135      45.034  31.909  82.465  0.00  0.00    +0.083 C 
ATOM      2  CG  HIS B 135      43.707  31.907  83.180  0.00  0.00    +0.037 A 
ATOM      3  ND1 HIS B 135      42.564  31.383  82.583  0.00  0.00    -0.348 N 
ATOM      4  CD2 HIS B 135      43.386  32.337  84.424  0.00  0.00    +0.133 A 
ATOM      5  CE1 HIS B 135      41.586  31.541  83.463  0.00  0.00    +0.196 A 
ATOM      6  NE2 HIS B 135      42.029  32.104  84.590  0.00  0.00    -0.244 NA
ATOM      7  HD1 HIS B 135      42.495  30.971  81.674  0.00  0.00    +0.166 HD
ATOM      8  CA  HIS B 135      45.011  32.663  81.128  0.00  0.00    +0.149 C 
ATOM      9  N   HIS B 135      46.270  32.543  80.394  0.00  0.00    -0.245 NA
ATOM     10  H   HIS B 135      47.080  32.199  80.868  0.00  0.00    +0.141 HD
ATOM     11  C   HIS B 135      44.666  34.139  81.368  0.00  0.00    +0.218 C 
ATOM     12  O   HIS B 135      43.504  34.505  81.306  0.00  0.00    -0.287 OA
TER
REMARK  Name = /home/alacournola/DEKOIS_2.0x/11betahsd1/11betahsd1_p_protoss_pocket.pdb
REMARK                            x       y       z     vdW  Elec       q    Type
REMARK                         _______ _______ _______ _____ _____    ______ ____
ATOM      1  CB  ASN B 143      36.067  38.266  81.598  0.00  0.00    +0.123 C 
ATOM      2  CG  ASN B 143      36.267  36.811  82.000  0.00  0.00    +0.212 C 
ATOM      3  OD1 ASN B 143      35.895  35.871  81.300  0.00  0.00    -0.276 OA
ATOM      4  ND2 ASN B 143      36.894  36.602  83.155  0.00  0.00    -0.329 N 
ATOM      5 HD21 ASN B 143      37.189  37.379  83.711  0.00  0.00    +0.145 HD
ATOM      6 HD22 ASN B 143      37.070  35.668  83.467  0.00  0.00    +0.145 HD
ATOM      7  CA  ASN B 143      35.393  38.510  80.241  0.00  0.00    +0.152 C 
ATOM      8  N   ASN B 143      36.173  37.858  79.185  0.00  0.00    -0.245 NA
ATOM      9  H   ASN B 143      37.135  37.632  79.337  0.00  0.00    +0.141 HD
ATOM     10  C   ASN B 143      35.242  39.993  80.050  0.00  0.00    +0.218 C 
ATOM     11  O   ASN B 143      34.417  40.583  80.716  0.00  0.00    -0.287 OA
TER
REMARK  Name = /home/alacournola/DEKOIS_2.0x/11betahsd1/11betahsd1_p_protoss_pocket.pdb
REMARK                            x       y       z     vdW  Elec       q    Type
REMARK                         _______ _______ _______ _____ _____    ______ ____
ATOM      1  CA  LYS B 174      35.703  46.204  93.440  0.00  0.00    +0.159 C 
ATOM      2  C   LYS B 174      36.768  46.215  94.542  0.00  0.00    +0.234 C 
ATOM      3  O   LYS B 174      37.198  47.288  94.985  0.00  0.00    -0.274 OA
ATOM      4  N   VAL B 175      37.147  45.039  95.029  0.00  0.00    -0.302 N 
ATOM      5  H   VAL B 175      36.708  44.209  94.686  0.00  0.00    +0.150 HD
ATOM      6  CA  VAL B 175      38.188  44.920  96.053  0.00  0.00    +0.161 C 
ATOM      7  C   VAL B 175      39.104  43.780  95.612  0.00  0.00    +0.234 C 
ATOM      8  O   VAL B 175      38.746  42.998  94.738  0.00  0.00    -0.274 OA
ATOM      9  N   ALA B 176      40.278  43.686  96.213  0.00  0.00    -0.303 N 
ATOM     10  H   ALA B 176      40.505  44.322  96.950  0.00  0.00    +0.149 HD
ATOM     11  CA  ALA B 176      41.245  42.673  95.820  0.00  0.00    +0.156 C 
ATOM     12  CB  ALA B 176      42.649  43.175  96.083  0.00  0.00    +0.038 C 
ATOM     13  C   ALA B 176      41.023  41.372  96.547  0.00  0.00    +0.234 C 
ATOM     14  O   ALA B 176      40.684  41.386  97.722  0.00  0.00    -0.274 OA
ATOM     15  N   TYR B 177      41.274  40.259  95.856  0.00  0.00    -0.302 N 
ATOM     16  H   TYR B 177      41.563  40.350  94.903  0.00  0.00    +0.150 HD
ATOM     17  CA  TYR B 177      41.150  38.909  96.415  0.00  0.00    +0.163 C 
ATOM     18  C   TYR B 177      42.313  38.094  95.894  0.00  0.00    +0.237 C 
ATOM     19  O   TYR B 177      42.588  38.143  94.699  0.00  0.00    -0.274 OA
ATOM     20  N   PRO B 178      42.957  37.263  96.721  0.00  0.00    -0.288 N 
ATOM     21  CA  PRO B 178      44.014  36.411  96.184  0.00  0.00    +0.162 C 
ATOM     22  CB  PRO B 178      44.724  35.910  97.441  0.00  0.00    +0.033 C 
ATOM     23  CG  PRO B 178      43.651  35.846  98.466  0.00  0.00    +0.021 C 
ATOM     24  CD  PRO B 178      42.738  37.020  98.168  0.00  0.00    +0.109 C 
ATOM     25  C   PRO B 178      43.401  35.247  95.407  0.00  0.00    +0.234 C 
ATOM     26  O   PRO B 178      42.210  34.951  95.587  0.00  0.00    -0.274 OA
ATOM     27  N   MET B 179      44.233  34.559  94.581  0.00  0.00    -0.302 N 
ATOM     28  H   MET B 179      45.163  34.915  94.483  0.00  0.00    +0.150 HD
ATOM     29  CA  MET B 179      43.908  33.346  93.816  0.00  0.00    +0.160 C 
ATOM     30  C   MET B 179      43.036  33.564  92.580  0.00  0.00    +0.234 C 
ATOM     31  O   MET B 179      42.760  32.603  91.875  0.00  0.00    -0.274 OA
ATOM     32  N   VAL B 180      42.629  34.821  92.315  0.00  0.00    -0.303 N 
ATOM     33  H   VAL B 180      42.926  35.563  92.916  0.00  0.00    +0.149 HD
ATOM     34  CA  VAL B 180      41.754  35.138  91.159  0.00  0.00    +0.150 C 
ATOM     35  CB  VAL B 180      40.258  35.345  91.614  0.00  0.00    +0.011 C 
ATOM     36  CG1 VAL B 180      39.659  34.056  92.167  0.00  0.00    +0.009 C 
ATOM     37  CG2 VAL B 180      40.133  36.458  92.658  0.00  0.00    +0.009 C 
ATOM     38  C   VAL B 180      42.320  36.376  90.438  0.00  0.00    +0.220 C 
ATOM     39  O   VAL B 180      41.537  37.200  89.972  0.00  0.00    -0.287 OA
ATOM     40  CB  MET B 179      43.282  32.252  94.701  0.00  0.00    +0.042 C 
ATOM     41  CG  MET B 179      44.176  31.801  95.836  0.00  0.00    +0.071 C 
ATOM     42  SD  MET B 179      43.190  30.719  96.860  0.00  0.00    -0.164 S 
ATOM     43  CE  MET B 179      42.252  31.889  97.734  0.00  0.00    +0.084 C 
ATOM     44  CB  TYR B 177      39.878  38.231  95.885  0.00  0.00    +0.067 C 
ATOM     45  CG  TYR B 177      38.590  38.614  96.568  0.00  0.00    -0.045 A 
ATOM     46  CD1 TYR B 177      37.895  39.758  96.192  0.00  0.00    +0.007 A 
ATOM     47  CD2 TYR B 177      37.987  37.760  97.483  0.00  0.00    +0.007 A 
ATOM     48  CE1 TYR B 177      36.660  40.067  96.748  0.00  0.00    +0.045 A 
ATOM     49  CE2 TYR B 177      36.763  38.072  98.067  0.00  0.00    +0.045 A 
ATOM     50  CZ  TYR B 177      36.109  39.232  97.701  0.00  0.00    +0.117 A 
ATOM     51  OH  TYR B 177      34.903  39.562  98.254  0.00  0.00    -0.507 OA
ATOM     52  HH  TYR B 177      34.491  38.968  98.945  0.00  0.00    +0.292 HD
ATOM     53  CB  VAL B 175      37.637  44.730  97.512  0.00  0.00    +0.012 C 
ATOM     54  CG1 VAL B 175      36.662  45.833  97.914  0.00  0.00    +0.009 C 
ATOM     55  CG2 VAL B 175      37.002  43.350  97.693  0.00  0.00    +0.009 C 
ATOM     56  C   GLY B 173      35.724  44.968  91.266  0.00  0.00    +0.231 C 
ATOM     57  O   GLY B 173      35.636  46.000  90.603  0.00  0.00    -0.274 OA
ATOM     58  N   LYS B 174      35.749  44.979  92.627  0.00  0.00    -0.303 N 
ATOM     59  H   LYS B 174      35.802  44.101  93.103  0.00  0.00    +0.149 HD
ATOM     60  CA  GLY B 173      35.788  43.611  90.576  0.00  0.00    +0.200 C 
ATOM     61  C   ALA B 172      36.728  41.777  91.924  0.00  0.00    +0.233 C 
ATOM     62  O   ALA B 172      37.840  41.869  91.406  0.00  0.00    -0.274 OA
ATOM     63  N   GLY B 173      35.688  42.532  91.555  0.00  0.00    -0.305 N 
ATOM     64  H   GLY B 173      34.797  42.349  91.970  0.00  0.00    +0.149 HD
ATOM     65  CA  ALA B 172      36.485  40.790  93.088  0.00  0.00    +0.156 C 
ATOM     66  CB  ALA B 172      36.859  39.358  92.690  0.00  0.00    +0.038 C 
ATOM     67  C   LEU B 171      34.587  41.869  94.271  0.00  0.00    +0.234 C 
ATOM     68  O   LEU B 171      35.262  42.846  94.589  0.00  0.00    -0.274 OA
ATOM     69  N   ALA B 172      35.082  40.850  93.561  0.00  0.00    -0.303 N 
ATOM     70  H   ALA B 172      34.474  40.088  93.337  0.00  0.00    +0.149 HD
ATOM     71  CA  LEU B 171      33.094  41.829  94.654  0.00  0.00    +0.159 C 
ATOM     72  C   SER B 170      32.417  41.547  92.347  0.00  0.00    +0.236 C 
ATOM     73  O   SER B 170      32.977  42.595  92.035  0.00  0.00    -0.274 OA
ATOM     74  N   LEU B 171      32.385  41.097  93.612  0.00  0.00    -0.302 N 
ATOM     75  H   LEU B 171      31.878  40.265  93.838  0.00  0.00    +0.150 HD
ATOM     76  CA  SER B 170      31.867  40.636  91.282  0.00  0.00    +0.184 C 
ATOM     77  C   SER B 169      30.698  40.959  89.169  0.00  0.00    +0.236 C 
ATOM     78  O   SER B 169      29.943  39.996  89.373  0.00  0.00    -0.274 OA
ATOM     79  N   SER B 170      31.588  41.383  90.060  0.00  0.00    -0.300 N 
ATOM     80  H   SER B 170      32.080  42.237  89.888  0.00  0.00    +0.150 HD
ATOM     81  CA  SER B 169      30.669  41.687  87.823  0.00  0.00    +0.184 C 
ATOM     82  C   VAL B 168      29.105  41.099  86.047  0.00  0.00    +0.232 C 
ATOM     83  O   VAL B 168      30.013  40.684  85.319  0.00  0.00    -0.274 OA
ATOM     84  N   SER B 169      29.314  41.595  87.272  0.00  0.00    -0.301 N 
ATOM     85  H   SER B 169      28.536  41.907  87.818  0.00  0.00    +0.150 HD
ATOM     86  CA  VAL B 168      27.659  41.068  85.587  0.00  0.00    +0.158 C 
ATOM     87  CB  VAL B 168      27.110  39.626  85.408  0.00  0.00    +0.010 C 
ATOM     88  CG1 VAL B 168      27.213  38.851  86.722  0.00  0.00    +0.009 C 
ATOM     89  CG2 VAL B 168      25.649  39.639  84.913  0.00  0.00    +0.009 C 
ATOM     90  N   VAL B 168      27.510  41.873  84.379  0.00  0.00    -0.244 NA
ATOM     91  H   VAL B 168      27.559  41.434  83.482  0.00  0.00    +0.141 HD
ATOM     92  CB  SER B 169      31.122  43.144  87.943  0.00  0.00    +0.187 C 
ATOM     93  OG  SER B 169      32.497  43.210  88.311  0.00  0.00    -0.393 OA
ATOM     94  HG  SER B 169      32.777  44.167  88.385  0.00  0.00    +0.209 HD
ATOM     95  CB  SER B 170      32.954  39.607  90.945  0.00  0.00    +0.187 C 
ATOM     96  OG  SER B 170      33.504  38.933  92.070  0.00  0.00    -0.393 OA
ATOM     97  HG  SER B 170      34.200  38.285  91.762  0.00  0.00    +0.209 HD
ATOM     98  CB  LEU B 171      32.968  41.111  96.014  0.00  0.00    +0.034 C 
ATOM     99  CG  LEU B 171      31.608  41.156  96.690  0.00  0.00    -0.015 C 
ATOM    100  CD1 LEU B 171      31.647  40.315  97.958  0.00  0.00    +0.007 C 
ATOM    101  CD2 LEU B 171      31.221  42.590  97.038  0.00  0.00    +0.007 C 
ATOM    102  CB  LYS B 174      34.306  46.393  94.076  0.00  0.00    +0.032 C 
ATOM    103  CG  LYS B 174      33.191  46.774  93.102  0.00  0.00    +0.000 C 
ATOM    104  CD  LYS B 174      33.354  48.245  92.563  0.00  0.00    -0.019 C 
ATOM    105  CE  LYS B 174      32.102  48.698  91.833  0.00  0.00    -0.086 C 
ATOM    106  NZ  LYS B 174      32.250  50.099  91.354  0.00  0.00    +0.378 N 
ATOM    107  HZ1 LYS B 174      31.417  50.378  90.877  0.00  0.00    -0.090 HD
ATOM    108  HZ2 LYS B 174      32.405  50.704  92.135  0.00  0.00    -0.090 HD
ATOM    109  HZ3 LYS B 174      33.028  50.157  90.728  0.00  0.00    -0.090 HD
TER
REMARK  Name = /home/alacournola/DEKOIS_2.0x/11betahsd1/11betahsd1_p_protoss_pocket.pdb
REMARK                            x       y       z     vdW  Elec       q    Type
REMARK                         _______ _______ _______ _____ _____    ______ ____
ATOM      1  CA  TYR B 183      39.617  37.168  86.806  0.00  0.00    +0.163 C 
ATOM      2  C   ALA B 182      41.884  37.682  85.980  0.00  0.00    +0.232 C 
ATOM      3  O   ALA B 182      41.497  38.649  85.307  0.00  0.00    -0.274 OA
ATOM      4  N   TYR B 183      41.051  36.940  86.727  0.00  0.00    -0.302 N 
ATOM      5  H   TYR B 183      41.439  36.188  87.259  0.00  0.00    +0.150 HD
ATOM      6  CA  ALA B 182      43.374  37.295  86.034  0.00  0.00    +0.152 C 
ATOM      7  CB  ALA B 182      43.619  36.018  85.217  0.00  0.00    +0.035 C 
ATOM      8  N   ALA B 182      43.818  37.080  87.430  0.00  0.00    -0.244 NA
ATOM      9  H   ALA B 182      44.153  36.177  87.699  0.00  0.00    +0.141 HD
ATOM     10  C   TYR B 183      39.340  38.575  87.357  0.00  0.00    +0.234 C 
ATOM     11  O   TYR B 183      38.557  39.322  86.774  0.00  0.00    -0.274 OA
ATOM     12  N   SER B 184      39.993  38.934  88.475  0.00  0.00    -0.302 N 
ATOM     13  H   SER B 184      40.623  38.279  88.892  0.00  0.00    +0.150 HD
ATOM     14  CA  SER B 184      39.822  40.248  89.111  0.00  0.00    +0.173 C 
ATOM     15  C   SER B 184      40.213  41.379  88.157  0.00  0.00    +0.222 C 
ATOM     16  O   SER B 184      39.474  42.357  88.034  0.00  0.00    -0.287 OA
ATOM     17  CB  SER B 184      40.623  40.328  90.419  0.00  0.00    +0.186 C 
ATOM     18  OG  SER B 184      40.473  41.579  91.054  0.00  0.00    -0.393 OA
ATOM     19  HG  SER B 184      39.508  41.730  91.269  0.00  0.00    +0.209 HD
ATOM     20  CB  TYR B 183      39.021  36.080  87.712  0.00  0.00    +0.067 C 
ATOM     21  CG  TYR B 183      37.558  36.244  88.059  0.00  0.00    -0.045 A 
ATOM     22  CD1 TYR B 183      36.562  35.746  87.221  0.00  0.00    +0.007 A 
ATOM     23  CD2 TYR B 183      37.169  36.831  89.263  0.00  0.00    +0.007 A 
ATOM     24  CE1 TYR B 183      35.214  35.840  87.570  0.00  0.00    +0.045 A 
ATOM     25  CE2 TYR B 183      35.831  36.888  89.640  0.00  0.00    +0.045 A 
ATOM     26  CZ  TYR B 183      34.858  36.411  88.780  0.00  0.00    +0.117 A 
ATOM     27  OH  TYR B 183      33.548  36.445  89.174  0.00  0.00    -0.507 OA
ATOM     28  HH  TYR B 183      33.300  36.859  90.050  0.00  0.00    +0.292 HD
TER
REMARK  Name = /home/alacournola/DEKOIS_2.0x/11betahsd1/11betahsd1_p_protoss_pocket.pdb
REMARK                            x       y       z     vdW  Elec       q    Type
REMARK                         _______ _______ _______ _____ _____    ______ ____
ATOM      1  CA  LYS B 187      36.197  42.545  86.375  0.00  0.00    +0.147 C 
ATOM      2  C   SER B 186      37.722  42.208  84.474  0.00  0.00    +0.234 C 
ATOM      3  O   SER B 186      37.096  43.024  83.784  0.00  0.00    -0.274 OA
ATOM      4  N   LYS B 187      37.387  41.944  85.762  0.00  0.00    -0.304 N 
ATOM      5  H   LYS B 187      37.961  41.329  86.303  0.00  0.00    +0.149 HD
ATOM      6  CA  SER B 186      38.975  41.532  83.926  0.00  0.00    +0.180 C 
ATOM      7  N   SER B 186      40.052  41.412  84.948  0.00  0.00    -0.242 NA
ATOM      8  H   SER B 186      40.334  40.506  85.264  0.00  0.00    +0.141 HD
ATOM      9  CB  SER B 186      38.666  40.162  83.312  0.00  0.00    +0.185 C 
ATOM     10  OG  SER B 186      37.888  39.337  84.174  0.00  0.00    -0.393 OA
ATOM     11  HG  SER B 186      38.093  39.563  85.126  0.00  0.00    +0.209 HD
ATOM     12  C   LYS B 187      36.442  44.008  86.704  0.00  0.00    +0.220 C 
ATOM     13  O   LYS B 187      35.560  44.842  86.488  0.00  0.00    -0.287 OA
ATOM     14  CB  LYS B 187      35.728  41.739  87.602  0.00  0.00    +0.030 C 
ATOM     15  CG  LYS B 187      35.255  40.314  87.246  0.00  0.00    +0.000 C 
ATOM     16  CD  LYS B 187      34.100  40.294  86.207  0.00  0.00    -0.019 C 
ATOM     17  CE  LYS B 187      33.359  38.972  86.272  0.00  0.00    -0.086 C 
ATOM     18  NZ  LYS B 187      32.213  38.913  85.282  0.00  0.00    +0.378 N 
ATOM     19  HZ1 LYS B 187      31.753  38.028  85.357  0.00  0.00    -0.090 HD
ATOM     20  HZ2 LYS B 187      31.562  39.645  85.482  0.00  0.00    -0.090 HD
ATOM     21  HZ3 LYS B 187      32.568  39.026  84.354  0.00  0.00    -0.090 HD
TER
REMARK  Name = /home/alacournola/DEKOIS_2.0x/11betahsd1/11betahsd1_p_protoss_pocket.pdb
REMARK                            x       y       z     vdW  Elec       q    Type
REMARK                         _______ _______ _______ _____ _____    ______ ____
ATOM      1  CA  GLU B 221      27.737  24.409  90.569  0.00  0.00    +0.159 C 
ATOM      2  C   GLU B 221      29.218  24.665  90.304  0.00  0.00    +0.234 C 
ATOM      3  O   GLU B 221      30.082  24.161  91.039  0.00  0.00    -0.274 OA
ATOM      4  N   THR B 222      29.510  25.542  89.313  0.00  0.00    -0.300 N 
ATOM      5  H   THR B 222      28.765  25.960  88.794  0.00  0.00    +0.150 HD
ATOM      6  CA  THR B 222      30.894  25.890  88.987  0.00  0.00    +0.187 C 
ATOM      7  C   THR B 222      31.631  26.508  90.169  0.00  0.00    +0.236 C 
ATOM      8  O   THR B 222      32.745  26.069  90.468  0.00  0.00    -0.274 OA
ATOM      9  N   ALA B 223      31.058  27.564  90.785  0.00  0.00    -0.303 N 
ATOM     10  H   ALA B 223      30.164  27.886  90.472  0.00  0.00    +0.149 HD
ATOM     11  CA  ALA B 223      31.713  28.248  91.899  0.00  0.00    +0.156 C 
ATOM     12  CB  ALA B 223      30.935  29.483  92.307  0.00  0.00    +0.038 C 
ATOM     13  C   ALA B 223      31.907  27.339  93.104  0.00  0.00    +0.234 C 
ATOM     14  O   ALA B 223      32.971  27.363  93.711  0.00  0.00    -0.274 OA
ATOM     15  N   MET B 224      30.883  26.537  93.441  0.00  0.00    -0.302 N 
ATOM     16  H   MET B 224      30.055  26.547  92.880  0.00  0.00    +0.150 HD
ATOM     17  CA  MET B 224      30.942  25.648  94.606  0.00  0.00    +0.160 C 
ATOM     18  C   MET B 224      32.048  24.599  94.479  0.00  0.00    +0.234 C 
ATOM     19  O   MET B 224      32.803  24.376  95.433  0.00  0.00    -0.274 OA
ATOM     20  N   LYS B 225      32.213  24.063  93.273  0.00  0.00    -0.302 N 
ATOM     21  H   LYS B 225      31.574  24.311  92.545  0.00  0.00    +0.150 HD
ATOM     22  CA  LYS B 225      33.290  23.127  92.971  0.00  0.00    +0.159 C 
ATOM     23  C   LYS B 225      34.652  23.844  93.048  0.00  0.00    +0.234 C 
ATOM     24  O   LYS B 225      35.611  23.312  93.637  0.00  0.00    -0.274 OA
ATOM     25  N   ALA B 226      34.736  25.065  92.482  0.00  0.00    -0.303 N 
ATOM     26  H   ALA B 226      33.919  25.480  92.081  0.00  0.00    +0.149 HD
ATOM     27  CA  ALA B 226      36.002  25.788  92.447  0.00  0.00    +0.156 C 
ATOM     28  CB  ALA B 226      35.886  27.004  91.547  0.00  0.00    +0.038 C 
ATOM     29  C   ALA B 226      36.513  26.192  93.816  0.00  0.00    +0.234 C 
ATOM     30  O   ALA B 226      37.724  26.137  94.045  0.00  0.00    -0.274 OA
ATOM     31  N   VAL B 227      35.610  26.572  94.749  0.00  0.00    -0.302 N 
ATOM     32  H   VAL B 227      34.633  26.516  94.544  0.00  0.00    +0.150 HD
ATOM     33  CA  VAL B 227      36.047  27.062  96.051  0.00  0.00    +0.161 C 
ATOM     34  C   VAL B 227      36.252  25.978  97.085  0.00  0.00    +0.234 C 
ATOM     35  O   VAL B 227      36.814  26.256  98.143  0.00  0.00    -0.274 OA
ATOM     36  N   SER B 228      35.740  24.770  96.799  0.00  0.00    -0.302 N 
ATOM     37  H   SER B 228      35.318  24.631  95.903  0.00  0.00    +0.150 HD
ATOM     38  CA  SER B 228      35.771  23.642  97.742  0.00  0.00    +0.173 C 
ATOM     39  C   SER B 228      37.134  23.417  98.387  0.00  0.00    +0.222 C 
ATOM     40  O   SER B 228      38.118  23.169  97.684  0.00  0.00    -0.287 OA
ATOM     41  CB  SER B 228      35.253  22.365  97.082  0.00  0.00    +0.186 C 
ATOM     42  OG  SER B 228      35.107  21.366  98.075  0.00  0.00    -0.393 OA
ATOM     43  HG  SER B 228      34.768  20.525  97.654  0.00  0.00    +0.209 HD
ATOM     44  CB  VAL B 227      35.154  28.215  96.588  0.00  0.00    +0.012 C 
ATOM     45  CG1 VAL B 227      35.133  29.406  95.614  0.00  0.00    +0.009 C 
ATOM     46  CG2 VAL B 227      33.740  27.724  96.918  0.00  0.00    +0.009 C 
ATOM     47  CB  LYS B 225      33.067  22.506  91.565  0.00  0.00    +0.032 C 
ATOM     48  CG  LYS B 225      34.083  21.445  91.172  0.00  0.00    +0.000 C 
ATOM     49  CD  LYS B 225      33.723  20.806  89.839  0.00  0.00    -0.019 C 
ATOM     50  CE  LYS B 225      34.907  20.097  89.218  0.00  0.00    -0.086 C 
ATOM     51  NZ  LYS B 225      34.567  19.556  87.878  0.00  0.00    +0.378 N 
ATOM     52  HZ1 LYS B 225      35.366  19.094  87.493  0.00  0.00    -0.090 HD
ATOM     53  HZ2 LYS B 225      33.814  18.904  87.963  0.00  0.00    -0.090 HD
ATOM     54  HZ3 LYS B 225      34.293  20.306  87.276  0.00  0.00    -0.090 HD
ATOM     55  CB  MET B 224      29.557  25.067  94.907  0.00  0.00    +0.042 C 
ATOM     56  CG  MET B 224      28.536  26.130  95.345  0.00  0.00    +0.071 C 
ATOM     57  SD  MET B 224      29.010  27.116  96.788  0.00  0.00    -0.164 S 
ATOM     58  CE  MET B 224      29.844  28.539  96.022  0.00  0.00    +0.084 C 
ATOM     59  CB  THR B 222      30.924  26.823  87.761  0.00  0.00    +0.141 C 
ATOM     60  CG2 THR B 222      32.347  27.206  87.355  0.00  0.00    +0.040 C 
ATOM     61  OG1 THR B 222      30.316  26.125  86.674  0.00  0.00    -0.390 OA
ATOM     62  HG1 THR B 222      30.320  26.706  85.860  0.00  0.00    +0.210 HD
ATOM     63  C   THR B 220      27.246  26.681  91.364  0.00  0.00    +0.236 C 
ATOM     64  O   THR B 220      28.194  26.667  92.152  0.00  0.00    -0.274 OA
ATOM     65  N   GLU B 221      26.951  25.646  90.546  0.00  0.00    -0.302 N 
ATOM     66  H   GLU B 221      26.181  25.726  89.913  0.00  0.00    +0.150 HD
ATOM     67  CA  THR B 220      26.374  27.913  91.264  0.00  0.00    +0.187 C 
ATOM     68  C   ASP B 219      25.766  28.117  93.626  0.00  0.00    +0.235 C 
ATOM     69  O   ASP B 219      25.128  27.070  93.559  0.00  0.00    -0.274 OA
ATOM     70  N   THR B 220      26.412  28.614  92.556  0.00  0.00    -0.300 N 
ATOM     71  H   THR B 220      26.923  29.469  92.640  0.00  0.00    +0.150 HD
ATOM     72  CA  ASP B 219      25.899  28.855  94.986  0.00  0.00    +0.170 C 
ATOM     73  C   ILE B 218      26.960  31.025  94.503  0.00  0.00    +0.234 C 
ATOM     74  O   ILE B 218      27.922  30.516  93.946  0.00  0.00    -0.274 OA
ATOM     75  N   ASP B 219      25.921  30.310  94.956  0.00  0.00    -0.302 N 
ATOM     76  H   ASP B 219      25.118  30.802  95.291  0.00  0.00    +0.150 HD
ATOM     77  CA  ILE B 218      26.855  32.529  94.630  0.00  0.00    +0.162 C 
ATOM     78  C   LEU B 217      28.437  33.765  96.134  0.00  0.00    +0.234 C 
ATOM     79  O   LEU B 217      27.591  34.023  96.990  0.00  0.00    -0.274 OA
ATOM     80  N   ILE B 218      28.173  33.076  95.009  0.00  0.00    -0.302 N 
ATOM     81  H   ILE B 218      28.932  32.922  94.377  0.00  0.00    +0.150 HD
ATOM     82  CA  LEU B 217      29.885  34.280  96.305  0.00  0.00    +0.159 C 
ATOM     83  C   GLY B 216      29.456  36.627  95.756  0.00  0.00    +0.231 C 
ATOM     84  O   GLY B 216      28.954  36.304  94.678  0.00  0.00    -0.274 OA
ATOM     85  N   LEU B 217      29.943  35.708  96.623  0.00  0.00    -0.303 N 
ATOM     86  H   LEU B 217      30.346  36.007  97.488  0.00  0.00    +0.149 HD
ATOM     87  CA  GLY B 216      29.554  38.088  96.144  0.00  0.00    +0.200 C 
ATOM     88  C   LEU B 215      29.099  39.365  94.125  0.00  0.00    +0.234 C 
ATOM     89  O   LEU B 215      30.243  39.209  93.695  0.00  0.00    -0.274 OA
ATOM     90  N   GLY B 216      28.687  38.884  95.293  0.00  0.00    -0.305 N 
ATOM     91  H   GLY B 216      27.753  39.076  95.595  0.00  0.00    +0.149 HD
ATOM     92  CA  LEU B 215      28.020  39.989  93.278  0.00  0.00    +0.159 C 
ATOM     93  C   VAL B 214      28.095  42.416  92.950  0.00  0.00    +0.232 C 
ATOM     94  O   VAL B 214      27.391  42.662  93.924  0.00  0.00    -0.274 OA
ATOM     95  N   LEU B 215      28.456  41.190  92.584  0.00  0.00    -0.303 N 
ATOM     96  H   LEU B 215      29.058  41.089  91.792  0.00  0.00    +0.149 HD
ATOM     97  CA  VAL B 214      28.604  43.538  92.063  0.00  0.00    +0.158 C 
ATOM     98  CB  VAL B 214      29.126  44.742  92.866  0.00  0.00    +0.010 C 
ATOM     99  CG1 VAL B 214      30.291  44.334  93.790  0.00  0.00    +0.009 C 
ATOM    100  CG2 VAL B 214      29.557  45.874  91.919  0.00  0.00    +0.009 C 
ATOM    101  N   VAL B 214      27.490  43.946  91.195  0.00  0.00    -0.244 NA
ATOM    102  H   VAL B 214      26.790  44.559  91.561  0.00  0.00    +0.141 HD
ATOM    103  CB  LEU B 215      27.561  38.914  92.264  0.00  0.00    +0.034 C 
ATOM    104  CG  LEU B 215      26.704  39.317  91.054  0.00  0.00    -0.015 C 
ATOM    105  CD1 LEU B 215      26.380  38.069  90.234  0.00  0.00    +0.007 C 
ATOM    106  CD2 LEU B 215      25.426  40.033  91.468  0.00  0.00    +0.007 C 
ATOM    107  CB  LEU B 217      30.633  33.470  97.378  0.00  0.00    +0.034 C 
ATOM    108  CG  LEU B 217      30.913  32.008  97.038  0.00  0.00    -0.015 C 
ATOM    109  CD1 LEU B 217      31.915  31.887  95.861  0.00  0.00    +0.007 C 
ATOM    110  CD2 LEU B 217      31.481  31.273  98.263  0.00  0.00    +0.007 C 
ATOM    111  CB  ILE B 218      26.332  33.180  93.302  0.00  0.00    +0.015 C 
ATOM    112  CG2 ILE B 218      24.881  32.740  93.004  0.00  0.00    +0.010 C 
ATOM    113  CG1 ILE B 218      26.454  34.733  93.310  0.00  0.00    +0.002 C 
ATOM    114  CD1 ILE B 218      25.709  35.512  94.499  0.00  0.00    +0.004 C 
ATOM    115  CB  ASP B 219      24.861  28.367  96.034  0.00  0.00    +0.156 C 
ATOM    116  CG  ASP B 219      23.416  28.604  95.645  0.00  0.00    +0.358 C 
ATOM    117  OD1 ASP B 219      22.538  28.211  96.411  0.00  0.00    -0.246 OA
ATOM    118  OD2 ASP B 219      23.167  29.159  94.529  0.00  0.00    -0.246 OA
ATOM    119  CB  THR B 220      26.832  28.823  90.097  0.00  0.00    +0.141 C 
ATOM    120  CG2 THR B 220      26.000  30.105  89.991  0.00  0.00    +0.040 C 
ATOM    121  OG1 THR B 220      28.219  29.159  90.291  0.00  0.00    -0.390 OA
ATOM    122  HG1 THR B 220      28.527  29.747  89.543  0.00  0.00    +0.210 HD
ATOM    123  CB  GLU B 221      27.178  23.401  89.571  0.00  0.00    +0.043 C 
ATOM    124  CG  GLU B 221      25.852  22.809  90.030  0.00  0.00    +0.127 C 
ATOM    125  CD  GLU B 221      25.310  21.694  89.155  0.00  0.00    +0.356 C 
ATOM    126  OE1 GLU B 221      24.083  21.446  89.209  0.00  0.00    -0.246 OA
ATOM    127  OE2 GLU B 221      26.110  21.056  88.432  0.00  0.00    -0.246 OA
TER
REMARK  Name = /home/alacournola/DEKOIS_2.0x/11betahsd1/11betahsd1_p_protoss_pocket.pdb
REMARK                            x       y       z     vdW  Elec       q    Type
REMARK                         _______ _______ _______ _____ _____    ______ ____
ATOM      1  C   HIS B 232      34.260  30.330 103.670  0.00  0.00    +0.234 C 
ATOM      2  O   HIS B 232      34.515  31.083 104.607  0.00  0.00    -0.274 OA
ATOM      3  N   MET B 233      33.362  30.627 102.726  0.00  0.00    -0.302 N 
ATOM      4  H   MET B 233      33.306  30.030 101.925  0.00  0.00    +0.150 HD
ATOM      5  CA  MET B 233      32.453  31.777 102.795  0.00  0.00    +0.160 C 
ATOM      6  C   MET B 233      31.045  31.267 102.601  0.00  0.00    +0.234 C 
ATOM      7  O   MET B 233      30.842  30.250 101.945  0.00  0.00    -0.274 OA
ATOM      8  N   GLN B 234      30.063  31.995 103.129  0.00  0.00    -0.302 N 
ATOM      9  H   GLN B 234      30.295  32.793 103.685  0.00  0.00    +0.150 HD
ATOM     10  CA  GLN B 234      28.657  31.661 102.919  0.00  0.00    +0.159 C 
ATOM     11  C   GLN B 234      28.290  32.072 101.471  0.00  0.00    +0.234 C 
ATOM     12  O   GLN B 234      28.585  33.204 101.093  0.00  0.00    -0.274 OA
ATOM     13  N   ALA B 235      27.672  31.170 100.686  0.00  0.00    -0.304 N 
ATOM     14  H   ALA B 235      27.498  30.258 101.058  0.00  0.00    +0.149 HD
ATOM     15  CA  ALA B 235      27.240  31.456  99.310  0.00  0.00    +0.144 C 
ATOM     16  CB  ALA B 235      27.455  30.260  98.406  0.00  0.00    +0.036 C 
ATOM     17  C   ALA B 235      25.777  31.856  99.291  0.00  0.00    +0.220 C 
ATOM     18  O   ALA B 235      24.961  31.272 100.020  0.00  0.00    -0.287 OA
ATOM     19  CB  GLN B 234      27.797  32.468 103.911  0.00  0.00    +0.041 C 
ATOM     20  CG  GLN B 234      26.294  32.308 103.704  0.00  0.00    +0.098 C 
ATOM     21  CD  GLN B 234      25.846  30.932 104.069  0.00  0.00    +0.211 C 
ATOM     22  OE1 GLN B 234      26.094  30.468 105.194  0.00  0.00    -0.276 OA
ATOM     23  NE2 GLN B 234      25.213  30.255 103.118  0.00  0.00    -0.329 N 
ATOM     24 HE21 GLN B 234      25.041  30.682 102.230  0.00  0.00    +0.145 HD
ATOM     25 HE22 GLN B 234      24.908  29.318 103.290  0.00  0.00    +0.145 HD
ATOM     26  CB  MET B 233      32.724  32.797 101.661  0.00  0.00    +0.042 C 
ATOM     27  CG  MET B 233      33.952  33.627 101.836  0.00  0.00    +0.071 C 
ATOM     28  SD  MET B 233      34.228  34.624 100.350  0.00  0.00    -0.164 S 
ATOM     29  CE  MET B 233      35.887  35.144 100.613  0.00  0.00    +0.084 C 
ATOM     30  CA  HIS B 232      35.105  29.087 103.423  0.00  0.00    +0.165 C 
ATOM     31  C   VAL B 231      36.194  28.987 101.257  0.00  0.00    +0.234 C 
ATOM     32  O   VAL B 231      35.397  28.170 100.808  0.00  0.00    -0.274 OA
ATOM     33  N   HIS B 232      36.149  29.465 102.493  0.00  0.00    -0.302 N 
ATOM     34  H   HIS B 232      36.857  30.105 102.792  0.00  0.00    +0.150 HD
ATOM     35  CA  VAL B 231      37.330  29.470 100.414  0.00  0.00    +0.161 C 
ATOM     36  C   ILE B 230      39.330  28.001 100.317  0.00  0.00    +0.232 C 
ATOM     37  O   ILE B 230      40.013  28.698 101.069  0.00  0.00    -0.274 OA
ATOM     38  N   VAL B 231      38.078  28.300  99.952  0.00  0.00    -0.302 N 
ATOM     39  H   VAL B 231      37.620  27.678  99.317  0.00  0.00    +0.150 HD
ATOM     40  CA  ILE B 230      39.957  26.763  99.690  0.00  0.00    +0.158 C 
ATOM     41  N   ILE B 230      39.078  25.597  99.807  0.00  0.00    -0.244 NA
ATOM     42  H   ILE B 230      38.212  25.610  99.307  0.00  0.00    +0.141 HD
ATOM     43  CB  ILE B 230      40.309  27.048  98.199  0.00  0.00    +0.013 C 
ATOM     44  CG2 ILE B 230      41.241  28.259  98.088  0.00  0.00    +0.009 C 
ATOM     45  CG1 ILE B 230      40.910  25.802  97.507  0.00  0.00    +0.002 C 
ATOM     46  CD1 ILE B 230      40.932  25.887  95.927  0.00  0.00    +0.004 C 
ATOM     47  CB  VAL B 231      36.809  30.329  99.215  0.00  0.00    +0.012 C 
ATOM     48  CG1 VAL B 231      35.853  31.426  99.679  0.00  0.00    +0.009 C 
ATOM     49  CG2 VAL B 231      37.958  30.933  98.456  0.00  0.00    +0.009 C 
ATOM     50  CB  HIS B 232      35.741  28.537 104.744  0.00  0.00    +0.088 C 
ATOM     51  CG  HIS B 232      36.794  27.492 104.497  0.00  0.00    +0.061 A 
ATOM     52  ND1 HIS B 232      36.476  26.270 103.932  0.00  0.00    -0.241 NA
ATOM     53  CD2 HIS B 232      38.121  27.527 104.740  0.00  0.00    +0.107 A 
ATOM     54  CE1 HIS B 232      37.618  25.602 103.850  0.00  0.00    +0.196 A 
ATOM     55  NE2 HIS B 232      38.637  26.312 104.323  0.00  0.00    -0.351 N 
ATOM     56  HE2 HIS B 232      39.593  26.024 104.369  0.00  0.00    +0.166 HD
TER
REMARK  Name = /home/alacournola/DEKOIS_2.0x/11betahsd1/11betahsd1_p_protoss_pocket.pdb
REMARK                            x       y       z     vdW  Elec       q    Type
REMARK                         _______ _______ _______ _____ _____    ______ ____
ATOM      1  CA  TYR B 258      24.210  41.371  96.170  0.00  0.00    +0.159 C 
ATOM      2  C   TYR B 258      25.211  40.428  96.813  0.00  0.00    +0.232 C 
ATOM      3  O   TYR B 258      26.076  39.884  96.133  0.00  0.00    -0.274 OA
ATOM      4  N   ASP B 259      25.078  40.223  98.131  0.00  0.00    -0.303 N 
ATOM      5  H   ASP B 259      24.340  40.682  98.626  0.00  0.00    +0.149 HD
ATOM      6  CA  ASP B 259      25.990  39.342  98.860  0.00  0.00    +0.158 C 
ATOM      7  C   ASP B 259      25.287  38.801 100.099  0.00  0.00    +0.220 C 
ATOM      8  O   ASP B 259      24.373  39.451 100.597  0.00  0.00    -0.287 OA
ATOM      9  CB  ASP B 259      27.229  40.132  99.320  0.00  0.00    +0.155 C 
ATOM     10  CG  ASP B 259      28.307  39.256  99.919  0.00  0.00    +0.358 C 
ATOM     11  OD1 ASP B 259      28.499  39.313 101.150  0.00  0.00    -0.246 OA
ATOM     12  OD2 ASP B 259      28.839  38.409  99.197  0.00  0.00    -0.246 OA
ATOM     13  N   TYR B 258      24.877  42.554  95.663  0.00  0.00    -0.244 NA
ATOM     14  H   TYR B 258      25.783  42.463  95.249  0.00  0.00    +0.141 HD
ATOM     15  CB  TYR B 258      23.396  40.678  95.044  0.00  0.00    +0.064 C 
ATOM     16  CG  TYR B 258      22.634  39.468  95.526  0.00  0.00    -0.045 A 
ATOM     17  CD1 TYR B 258      23.151  38.192  95.367  0.00  0.00    +0.007 A 
ATOM     18  CD2 TYR B 258      21.433  39.607  96.225  0.00  0.00    +0.007 A 
ATOM     19  CE1 TYR B 258      22.482  37.072  95.858  0.00  0.00    +0.045 A 
ATOM     20  CE2 TYR B 258      20.759  38.496  96.728  0.00  0.00    +0.045 A 
ATOM     21  CZ  TYR B 258      21.288  37.228  96.535  0.00  0.00    +0.117 A 
ATOM     22  OH  TYR B 258      20.656  36.109  97.021  0.00  0.00    -0.507 OA
ATOM     23  HH  TYR B 258      19.791  36.198  97.514  0.00  0.00    +0.292 HD
TER
REMARK  Name = /home/alacournola/DEKOIS_2.0x/11betahsd1/11betahsd1_p_protoss_pocket.pdb
REMARK                            x       y       z     vdW  Elec       q    Type
REMARK                         _______ _______ _______ _____ _____    ______ ____
ATOM      1  CA  THR B 264      29.588  43.554 102.753  0.00  0.00    +0.171 C 
ATOM      2  N   THR B 264      29.164  43.242 104.110  0.00  0.00    -0.243 NA
ATOM      3  H   THR B 264      28.866  42.312 104.324  0.00  0.00    +0.141 HD
ATOM      4  C   THR B 264      28.702  44.646 102.185  0.00  0.00    +0.220 C 
ATOM      5  O   THR B 264      29.211  45.669 101.721  0.00  0.00    -0.287 OA
ATOM      6  CB  THR B 264      29.520  42.281 101.924  0.00  0.00    +0.137 C 
ATOM      7  CG2 THR B 264      29.745  42.534 100.467  0.00  0.00    +0.040 C 
ATOM      8  OG1 THR B 264      30.487  41.380 102.451  0.00  0.00    -0.390 OA
ATOM      9  HG1 THR B 264      30.469  40.528 101.927  0.00  0.00    +0.210 HD
TER
REMARK  Name = /home/alacournola/DEKOIS_2.0x/11betahsd1/11betahsd1_p_protoss_pocket.pdb
REMARK                            x       y       z     vdW  Elec       q    Type
REMARK                         _______ _______ _______ _____ _____    ______ ____
ATOM      1  CA  ILE B 268      30.918  47.964  99.478  0.00  0.00    +0.146 C 
ATOM      2  N   ILE B 268      30.550  48.009 100.905  0.00  0.00    -0.245 NA
ATOM      3  H   ILE B 268      29.774  47.462 101.219  0.00  0.00    +0.141 HD
ATOM      4  C   ILE B 268      30.769  49.275  98.709  0.00  0.00    +0.218 C 
ATOM      5  O   ILE B 268      31.561  49.523  97.793  0.00  0.00    -0.287 OA
ATOM      6  CB  ILE B 268      30.231  46.763  98.779  0.00  0.00    +0.012 C 
ATOM      7  CG2 ILE B 268      28.718  46.949  98.665  0.00  0.00    +0.009 C 
ATOM      8  CG1 ILE B 268      30.889  46.412  97.406  0.00  0.00    +0.002 C 
ATOM      9  CD1 ILE B 268      32.440  46.045  97.464  0.00  0.00    +0.004 C 
TER
